  Title=2D heat conduction problem
  Variables="x","y","T"
  Zone I=202       J=202      F=Point
         0.00000             0.00000              97.80488
         0.00000             0.00250             100.00000
         0.00000             0.00750             100.00000
         0.00000             0.01250             100.00000
         0.00000             0.01750             100.00000
         0.00000             0.02250             100.00000
         0.00000             0.02750             100.00000
         0.00000             0.03250             100.00000
         0.00000             0.03750             100.00000
         0.00000             0.04250             100.00000
         0.00000             0.04750             100.00000
         0.00000             0.05250             100.00000
         0.00000             0.05750             100.00000
         0.00000             0.06250             100.00000
         0.00000             0.06750             100.00000
         0.00000             0.07250             100.00000
         0.00000             0.07750             100.00000
         0.00000             0.08250             100.00000
         0.00000             0.08750             100.00000
         0.00000             0.09250             100.00000
         0.00000             0.09750             100.00000
         0.00000             0.10250             100.00000
         0.00000             0.10750             100.00000
         0.00000             0.11250             100.00000
         0.00000             0.11750             100.00000
         0.00000             0.12250             100.00000
         0.00000             0.12750             100.00000
         0.00000             0.13250             100.00000
         0.00000             0.13750             100.00000
         0.00000             0.14250             100.00000
         0.00000             0.14750             100.00000
         0.00000             0.15250             100.00000
         0.00000             0.15750             100.00000
         0.00000             0.16250             100.00000
         0.00000             0.16750             100.00000
         0.00000             0.17250             100.00000
         0.00000             0.17750             100.00000
         0.00000             0.18250             100.00000
         0.00000             0.18750             100.00000
         0.00000             0.19250             100.00000
         0.00000             0.19750             100.00000
         0.00000             0.20250             100.00000
         0.00000             0.20750             100.00000
         0.00000             0.21250             100.00000
         0.00000             0.21750             100.00000
         0.00000             0.22250             100.00000
         0.00000             0.22750             100.00000
         0.00000             0.23250             100.00000
         0.00000             0.23750             100.00000
         0.00000             0.24250             100.00000
         0.00000             0.24750             100.00000
         0.00000             0.25250             100.00000
         0.00000             0.25750             100.00000
         0.00000             0.26250             100.00000
         0.00000             0.26750             100.00000
         0.00000             0.27250             100.00000
         0.00000             0.27750             100.00000
         0.00000             0.28250             100.00000
         0.00000             0.28750             100.00000
         0.00000             0.29250             100.00000
         0.00000             0.29750             100.00000
         0.00000             0.30250             100.00000
         0.00000             0.30750             100.00000
         0.00000             0.31250             100.00000
         0.00000             0.31750             100.00000
         0.00000             0.32250             100.00000
         0.00000             0.32750             100.00000
         0.00000             0.33250             100.00000
         0.00000             0.33750             100.00000
         0.00000             0.34250             100.00000
         0.00000             0.34750             100.00000
         0.00000             0.35250             100.00000
         0.00000             0.35750             100.00000
         0.00000             0.36250             100.00000
         0.00000             0.36750             100.00000
         0.00000             0.37250             100.00000
         0.00000             0.37750             100.00000
         0.00000             0.38250             100.00000
         0.00000             0.38750             100.00000
         0.00000             0.39250             100.00000
         0.00000             0.39750             100.00000
         0.00000             0.40250             100.00000
         0.00000             0.40750             100.00000
         0.00000             0.41250             100.00000
         0.00000             0.41750             100.00000
         0.00000             0.42250             100.00000
         0.00000             0.42750             100.00000
         0.00000             0.43250             100.00000
         0.00000             0.43750             100.00000
         0.00000             0.44250             100.00000
         0.00000             0.44750             100.00000
         0.00000             0.45250             100.00000
         0.00000             0.45750             100.00000
         0.00000             0.46250             100.00000
         0.00000             0.46750             100.00000
         0.00000             0.47250             100.00000
         0.00000             0.47750             100.00000
         0.00000             0.48250             100.00000
         0.00000             0.48750             100.00000
         0.00000             0.49250             100.00000
         0.00000             0.49750             100.00000
         0.00000             0.50250             100.00000
         0.00000             0.50750             100.00000
         0.00000             0.51250             100.00000
         0.00000             0.51750             100.00000
         0.00000             0.52250             100.00000
         0.00000             0.52750             100.00000
         0.00000             0.53250             100.00000
         0.00000             0.53750             100.00000
         0.00000             0.54250             100.00000
         0.00000             0.54750             100.00000
         0.00000             0.55250             100.00000
         0.00000             0.55750             100.00000
         0.00000             0.56250             100.00000
         0.00000             0.56750             100.00000
         0.00000             0.57250             100.00000
         0.00000             0.57750             100.00000
         0.00000             0.58250             100.00000
         0.00000             0.58750             100.00000
         0.00000             0.59250             100.00000
         0.00000             0.59750             100.00000
         0.00000             0.60250             100.00000
         0.00000             0.60750             100.00000
         0.00000             0.61250             100.00000
         0.00000             0.61750             100.00000
         0.00000             0.62250             100.00000
         0.00000             0.62750             100.00000
         0.00000             0.63250             100.00000
         0.00000             0.63750             100.00000
         0.00000             0.64250             100.00000
         0.00000             0.64750             100.00000
         0.00000             0.65250             100.00000
         0.00000             0.65750             100.00000
         0.00000             0.66250             100.00000
         0.00000             0.66750             100.00000
         0.00000             0.67250             100.00000
         0.00000             0.67750             100.00000
         0.00000             0.68250             100.00000
         0.00000             0.68750             100.00000
         0.00000             0.69250             100.00000
         0.00000             0.69750             100.00000
         0.00000             0.70250             100.00000
         0.00000             0.70750             100.00000
         0.00000             0.71250             100.00000
         0.00000             0.71750             100.00000
         0.00000             0.72250             100.00000
         0.00000             0.72750             100.00000
         0.00000             0.73250             100.00000
         0.00000             0.73750             100.00000
         0.00000             0.74250             100.00000
         0.00000             0.74750             100.00000
         0.00000             0.75250             100.00000
         0.00000             0.75750             100.00000
         0.00000             0.76250             100.00000
         0.00000             0.76750             100.00000
         0.00000             0.77250             100.00000
         0.00000             0.77750             100.00000
         0.00000             0.78250             100.00000
         0.00000             0.78750             100.00000
         0.00000             0.79250             100.00000
         0.00000             0.79750             100.00000
         0.00000             0.80250             100.00000
         0.00000             0.80750             100.00000
         0.00000             0.81250             100.00000
         0.00000             0.81750             100.00000
         0.00000             0.82250             100.00000
         0.00000             0.82750             100.00000
         0.00000             0.83250             100.00000
         0.00000             0.83750             100.00000
         0.00000             0.84250             100.00000
         0.00000             0.84750             100.00000
         0.00000             0.85250             100.00000
         0.00000             0.85750             100.00000
         0.00000             0.86250             100.00000
         0.00000             0.86750             100.00000
         0.00000             0.87250             100.00000
         0.00000             0.87750             100.00000
         0.00000             0.88250             100.00000
         0.00000             0.88750             100.00000
         0.00000             0.89250             100.00000
         0.00000             0.89750             100.00000
         0.00000             0.90250             100.00000
         0.00000             0.90750             100.00000
         0.00000             0.91250             100.00000
         0.00000             0.91750             100.00000
         0.00000             0.92250             100.00000
         0.00000             0.92750             100.00000
         0.00000             0.93250             100.00000
         0.00000             0.93750             100.00000
         0.00000             0.94250             100.00000
         0.00000             0.94750             100.00000
         0.00000             0.95250             100.00000
         0.00000             0.95750             100.00000
         0.00000             0.96250             100.00000
         0.00000             0.96750             100.00000
         0.00000             0.97250             100.00000
         0.00000             0.97750             100.00000
         0.00000             0.98250             100.00000
         0.00000             0.98750             100.00000
         0.00000             0.99250             100.00000
         0.00000             0.99750             100.00000
         0.00000             1.00000             100.00000
         0.00250             0.00000              93.18607
         0.00250             0.00250              95.26572
         0.00250             0.00750              96.69998
         0.00250             0.01250              97.36259
         0.00250             0.01750              97.75140
         0.00250             0.02250              98.01698
         0.00250             0.02750              98.21533
         0.00250             0.03250              98.37173
         0.00250             0.03750              98.49963
         0.00250             0.04250              98.60698
         0.00250             0.04750              98.69885
         0.00250             0.05250              98.77874
         0.00250             0.05750              98.84906
         0.00250             0.06250              98.91162
         0.00250             0.06750              98.96777
         0.00250             0.07250              99.01855
         0.00250             0.07750              99.06477
         0.00250             0.08250              99.10710
         0.00250             0.08750              99.14607
         0.00250             0.09250              99.18211
         0.00250             0.09750              99.21556
         0.00250             0.10250              99.24675
         0.00250             0.10750              99.27592
         0.00250             0.11250              99.30328
         0.00250             0.11750              99.32903
         0.00250             0.12250              99.35332
         0.00250             0.12750              99.37628
         0.00250             0.13250              99.39806
         0.00250             0.13750              99.41875
         0.00250             0.14250              99.43845
         0.00250             0.14750              99.45723
         0.00250             0.15250              99.47517
         0.00250             0.15750              99.49235
         0.00250             0.16250              99.50880
         0.00250             0.16750              99.52461
         0.00250             0.17250              99.53980
         0.00250             0.17750              99.55444
         0.00250             0.18250              99.56854
         0.00250             0.18750              99.58215
         0.00250             0.19250              99.59531
         0.00250             0.19750              99.60804
         0.00250             0.20250              99.62037
         0.00250             0.20750              99.63232
         0.00250             0.21250              99.64393
         0.00250             0.21750              99.65520
         0.00250             0.22250              99.66615
         0.00250             0.22750              99.67682
         0.00250             0.23250              99.68721
         0.00250             0.23750              99.69734
         0.00250             0.24250              99.70722
         0.00250             0.24750              99.71687
         0.00250             0.25250              99.72632
         0.00250             0.25750              99.73554
         0.00250             0.26250              99.74460
         0.00250             0.26750              99.75345
         0.00250             0.27250              99.76213
         0.00250             0.27750              99.77065
         0.00250             0.28250              99.77900
         0.00250             0.28750              99.78721
         0.00250             0.29250              99.79528
         0.00250             0.29750              99.80322
         0.00250             0.30250              99.81104
         0.00250             0.30750              99.81873
         0.00250             0.31250              99.82631
         0.00250             0.31750              99.83379
         0.00250             0.32250              99.84117
         0.00250             0.32750              99.84845
         0.00250             0.33250              99.85565
         0.00250             0.33750              99.86276
         0.00250             0.34250              99.86980
         0.00250             0.34750              99.87675
         0.00250             0.35250              99.88364
         0.00250             0.35750              99.89046
         0.00250             0.36250              99.89722
         0.00250             0.36750              99.90392
         0.00250             0.37250              99.91057
         0.00250             0.37750              99.91718
         0.00250             0.38250              99.92373
         0.00250             0.38750              99.93024
         0.00250             0.39250              99.93671
         0.00250             0.39750              99.94315
         0.00250             0.40250              99.94955
         0.00250             0.40750              99.95592
         0.00250             0.41250              99.96227
         0.00250             0.41750              99.96860
         0.00250             0.42250              99.97489
         0.00250             0.42750              99.98119
         0.00250             0.43250              99.98746
         0.00250             0.43750              99.99373
         0.00250             0.44250              99.99998
         0.00250             0.44750             100.00623
         0.00250             0.45250             100.01248
         0.00250             0.45750             100.01873
         0.00250             0.46250             100.02499
         0.00250             0.46750             100.03126
         0.00250             0.47250             100.03752
         0.00250             0.47750             100.04381
         0.00250             0.48250             100.05011
         0.00250             0.48750             100.05644
         0.00250             0.49250             100.06278
         0.00250             0.49750             100.06914
         0.00250             0.50250             100.07553
         0.00250             0.50750             100.08195
         0.00250             0.51250             100.08841
         0.00250             0.51750             100.09490
         0.00250             0.52250             100.10143
         0.00250             0.52750             100.10800
         0.00250             0.53250             100.11462
         0.00250             0.53750             100.12129
         0.00250             0.54250             100.12802
         0.00250             0.54750             100.13480
         0.00250             0.55250             100.14164
         0.00250             0.55750             100.14854
         0.00250             0.56250             100.15552
         0.00250             0.56750             100.16256
         0.00250             0.57250             100.16968
         0.00250             0.57750             100.17687
         0.00250             0.58250             100.18414
         0.00250             0.58750             100.19151
         0.00250             0.59250             100.19897
         0.00250             0.59750             100.20654
         0.00250             0.60250             100.21422
         0.00250             0.60750             100.22199
         0.00250             0.61250             100.22988
         0.00250             0.61750             100.23788
         0.00250             0.62250             100.24602
         0.00250             0.62750             100.25429
         0.00250             0.63250             100.26270
         0.00250             0.63750             100.27125
         0.00250             0.64250             100.27995
         0.00250             0.64750             100.28881
         0.00250             0.65250             100.29784
         0.00250             0.65750             100.30704
         0.00250             0.66250             100.31644
         0.00250             0.66750             100.32603
         0.00250             0.67250             100.33582
         0.00250             0.67750             100.34583
         0.00250             0.68250             100.35607
         0.00250             0.68750             100.36655
         0.00250             0.69250             100.37726
         0.00250             0.69750             100.38824
         0.00250             0.70250             100.39951
         0.00250             0.70750             100.41107
         0.00250             0.71250             100.42294
         0.00250             0.71750             100.43515
         0.00250             0.72250             100.44769
         0.00250             0.72750             100.46059
         0.00250             0.73250             100.47389
         0.00250             0.73750             100.48759
         0.00250             0.74250             100.50172
         0.00250             0.74750             100.51631
         0.00250             0.75250             100.53139
         0.00250             0.75750             100.54700
         0.00250             0.76250             100.56315
         0.00250             0.76750             100.57990
         0.00250             0.77250             100.59727
         0.00250             0.77750             100.61530
         0.00250             0.78250             100.63406
         0.00250             0.78750             100.65359
         0.00250             0.79250             100.67397
         0.00250             0.79750             100.69521
         0.00250             0.80250             100.71740
         0.00250             0.80750             100.74062
         0.00250             0.81250             100.76497
         0.00250             0.81750             100.79052
         0.00250             0.82250             100.81738
         0.00250             0.82750             100.84566
         0.00250             0.83250             100.87549
         0.00250             0.83750             100.90701
         0.00250             0.84250             100.94039
         0.00250             0.84750             100.97581
         0.00250             0.85250             101.01347
         0.00250             0.85750             101.05361
         0.00250             0.86250             101.09653
         0.00250             0.86750             101.14251
         0.00250             0.87250             101.19192
         0.00250             0.87750             101.24518
         0.00250             0.88250             101.30277
         0.00250             0.88750             101.36530
         0.00250             0.89250             101.43344
         0.00250             0.89750             101.50803
         0.00250             0.90250             101.59004
         0.00250             0.90750             101.68069
         0.00250             0.91250             101.78149
         0.00250             0.91750             101.89424
         0.00250             0.92250             102.02130
         0.00250             0.92750             102.16565
         0.00250             0.93250             102.33113
         0.00250             0.93750             102.52286
         0.00250             0.94250             102.74773
         0.00250             0.94750             103.01528
         0.00250             0.95250             103.33918
         0.00250             0.95750             103.73957
         0.00250             0.96250             104.24766
         0.00250             0.96750             104.91454
         0.00250             0.97250             105.83041
         0.00250             0.97750             107.17175
         0.00250             0.98250             109.33469
         0.00250             0.98750             113.37469
         0.00250             0.99250             122.67275
         0.00250             0.99750             149.99893
         0.00250             1.00000             100.00000
         0.00750             0.00000              86.60707
         0.00750             0.00250              88.52225
         0.00750             0.00750              90.87157
         0.00750             0.01250              92.36163
         0.00750             0.01750              93.37741
         0.00750             0.02250              94.11822
         0.00750             0.02750              94.68789
         0.00750             0.03250              95.14371
         0.00750             0.03750              95.51946
         0.00750             0.04250              95.83640
         0.00750             0.04750              96.10858
         0.00750             0.05250              96.34575
         0.00750             0.05750              96.55492
         0.00750             0.06250              96.74123
         0.00750             0.06750              96.90864
         0.00750             0.07250              97.06017
         0.00750             0.07750              97.19820
         0.00750             0.08250              97.32468
         0.00750             0.08750              97.44114
         0.00750             0.09250              97.54888
         0.00750             0.09750              97.64896
         0.00750             0.10250              97.74226
         0.00750             0.10750              97.82953
         0.00750             0.11250              97.91142
         0.00750             0.11750              97.98851
         0.00750             0.12250              98.06124
         0.00750             0.12750              98.13005
         0.00750             0.13250              98.19527
         0.00750             0.13750              98.25724
         0.00750             0.14250              98.31624
         0.00750             0.14750              98.37251
         0.00750             0.15250              98.42627
         0.00750             0.15750              98.47774
         0.00750             0.16250              98.52708
         0.00750             0.16750              98.57445
         0.00750             0.17250              98.61999
         0.00750             0.17750              98.66385
         0.00750             0.18250              98.70612
         0.00750             0.18750              98.74693
         0.00750             0.19250              98.78637
         0.00750             0.19750              98.82452
         0.00750             0.20250              98.86147
         0.00750             0.20750              98.89731
         0.00750             0.21250              98.93209
         0.00750             0.21750              98.96588
         0.00750             0.22250              98.99874
         0.00750             0.22750              99.03072
         0.00750             0.23250              99.06187
         0.00750             0.23750              99.09224
         0.00750             0.24250              99.12188
         0.00750             0.24750              99.15083
         0.00750             0.25250              99.17914
         0.00750             0.25750              99.20683
         0.00750             0.26250              99.23395
         0.00750             0.26750              99.26050
         0.00750             0.27250              99.28654
         0.00750             0.27750              99.31207
         0.00750             0.28250              99.33714
         0.00750             0.28750              99.36176
         0.00750             0.29250              99.38597
         0.00750             0.29750              99.40977
         0.00750             0.30250              99.43321
         0.00750             0.30750              99.45630
         0.00750             0.31250              99.47904
         0.00750             0.31750              99.50147
         0.00750             0.32250              99.52361
         0.00750             0.32750              99.54546
         0.00750             0.33250              99.56703
         0.00750             0.33750              99.58836
         0.00750             0.34250              99.60945
         0.00750             0.34750              99.63033
         0.00750             0.35250              99.65099
         0.00750             0.35750              99.67145
         0.00750             0.36250              99.69173
         0.00750             0.36750              99.71182
         0.00750             0.37250              99.73176
         0.00750             0.37750              99.75155
         0.00750             0.38250              99.77121
         0.00750             0.38750              99.79074
         0.00750             0.39250              99.81016
         0.00750             0.39750              99.82945
         0.00750             0.40250              99.84866
         0.00750             0.40750              99.86777
         0.00750             0.41250              99.88681
         0.00750             0.41750              99.90578
         0.00750             0.42250              99.92469
         0.00750             0.42750              99.94356
         0.00750             0.43250              99.96239
         0.00750             0.43750              99.98118
         0.00750             0.44250              99.99995
         0.00750             0.44750             100.01870
         0.00750             0.45250             100.03745
         0.00750             0.45750             100.05621
         0.00750             0.46250             100.07497
         0.00750             0.46750             100.09377
         0.00750             0.47250             100.11258
         0.00750             0.47750             100.13143
         0.00750             0.48250             100.15033
         0.00750             0.48750             100.16929
         0.00750             0.49250             100.18831
         0.00750             0.49750             100.20740
         0.00750             0.50250             100.22657